64
Lattice="12.6 0.0 0.0 0.0 12.6 0.0 0.0 0.0 12.6" Properties=species:S:1:pos:R:3:forces:R:3 energy=-189.26649931 stress="0.0027050950211943074 -0.0003482512431877823 0.0006122982867582735 -0.0003482512431877823 0.002012187644075252 0.0005101809559496976 0.0006122982867582735 0.0005101809559496976 0.0040200436808171406" free_energy=-189.26649931 pbc="T T T"
Na       6.30990000       6.46429000       6.33902000       0.08077300      -0.10503400      -0.17680100
Na       3.25101000       3.17641000       6.61750000       0.07075100      -0.21103100      -0.61592200
Na       6.09847000       9.67040000       3.01148000       0.18312000      -0.07252900       0.04372600
Na       2.87252000       6.39632000       3.64958000      -0.00454200      -1.51830600       0.29573700
Na       3.17447000       9.28527000      12.39330000       0.03002200       0.24753600      -0.05874200
Na       0.60784000       2.75293000       9.78046000      -0.62517500       0.21339900      -0.24980300
Na       9.13087000       0.04500000       9.59493000       0.17992400       0.26777500      -0.03985000
Na      12.08810000       6.25844000       6.32188000       0.38446000      -0.10630700       0.45750100
Na       6.64924000       9.65825000       9.58233000      -0.46219700      -0.19969500       0.11846700
Na       3.28251000       6.19544000       9.35137000      -0.12277800       0.19346400       0.07745900
Na       3.20474000       9.03943000       6.25943000      -0.18500800       0.19302800       0.19222400
Na      12.26670000       9.27775000       9.32753000       0.43397600       0.16304600      -0.04450400
Na       9.43519000       6.76930000       9.76909000       0.04986700      -0.48024800      -0.17493300
Na       6.37809000       3.16235000       9.73612000       0.20066500      -0.15964100      -0.56655400
Na       3.46952000      12.58080000       9.54887000      -0.92162100      -0.53585600      -0.19411600
Na       9.08522000       9.57000000       5.87020000       0.08035800      -0.26881200       0.21394000
Na       3.21372000       3.51263000       0.28280000       0.05406500       0.03104600       0.16392700
Na       0.56687000      12.42280000       6.11759000      -0.23896500       0.35082400       0.34617800
Na      12.40810000       3.42452000       3.09099000       0.28782500      -0.15557300       0.15635300
Na       9.30440000       0.06430000       3.39979000       0.02335900       0.29274900      -0.18136300
Na       0.51192000       6.57956000       0.12381000      -0.94388200      -0.20884500      -0.04408200
Na       9.51496000       3.50265000       0.08800000      -0.01107600      -0.14572900      -0.48315300
Na       5.53678000       0.14884000       0.13000000       0.77281600       0.02289400       0.07813300
Na       0.04105000       0.19192000      12.57495000      -0.15372700      -0.15761400       0.02451000
Na       9.70202000       2.62218000       6.28042000      -0.09497400       0.14029700       0.31557700
Na       6.15846000      12.49677000       6.22802000       0.09484900       0.17837900      -0.06069400
Na      12.41380000       9.37601000       3.04938000      -0.11657600       0.17716300       0.16149700
Na       9.28708000       5.96343000       3.13899000       0.13936000       0.31456100       0.00398200
Na       6.13662000       6.31319000      12.44910000       0.13703900       0.11350100       0.17066900
Na       9.50285000       9.47958000      12.59169000      -0.11360500       0.13587400       0.29722000
Na       2.83875000      11.67610000       3.27324000       0.19079600       0.33021800      -0.00110600
Na       6.48532000       3.27116000       3.02951000       0.02216100      -0.03141000       0.03633400
Br       9.46949000       3.32191000       9.71573000      -0.03418600      -0.22428900      -0.03717300
Br       6.03093000      12.35630000       9.84220000       0.83693100       0.15877900      -0.04188800
Br       0.26199000       9.69970000       5.94314000      -0.01532300      -0.37939100       0.18862500
Br       9.38209000       6.42533000       6.02803000      -0.37787100       0.05711700       0.15611300
Br       6.47581000       2.76063000       6.66916000       0.14633200       0.15696300      -0.17523100
Br       3.33788000       0.05953000       6.20633000      -0.04394200      -0.18374500       0.02870000
Br       9.41672000      10.02350000       3.18565000       0.06109200      -0.58059500      -0.43525700
Br       6.61639000       6.71511000       2.93531000      -0.19817500      -0.46781200       0.27943900
Br       2.92540000       9.40393000       9.35961000       0.16076600      -0.07387000      -0.05023000
Br       9.34104000       9.75566000       9.00085000       0.22932000      -0.49497900       0.26376600
Br       6.43848000       5.98569000       9.19510000      -0.12744000       0.54831900       0.26339100
Br       3.26757000       2.66240000       9.27111000       0.30438500       0.63301700       0.62764700
Br       6.07401000       9.57941000       5.94684000       0.06067600      -0.20432200       0.25102600
Br       3.13435000       6.06866000       6.52916000       0.15149800       0.21220400      -0.15238100
Br       3.16068000       8.72092000       2.94436000       0.06632500       1.75066500      -0.22075900
Br       0.04301000       6.24741000       9.37313000      -0.20919500       0.26292600      -0.03687400
Br       5.79629000       0.22356000       3.03008000       0.27887000      -0.27439800       0.00404900
Br      12.51420000       9.28887000       0.19535000      -0.08357300       0.24055000      -0.20425200
Br       9.35844000       6.40657000       0.07991000       0.07168000       0.15492000      -0.08259600
Br       6.24602000       3.34958000      12.44600000      -0.18181900      -0.08774400       0.50164800
Br       2.97099000      12.15950000       0.06560000      -0.53421200       0.12711400       0.08789700
Br       0.22110000       0.32596000       3.38747000      -0.14853800      -0.02019900      -0.57075700
Br       0.15086000       3.58471000      12.59617000       0.14038900      -0.21863900       0.28615200
Br       9.33765000      12.43420000      12.42290000       0.18479000       0.07929300       0.20333900
Br       3.79219000       3.47865000       3.33791000      -0.68181400       0.34940700      -0.20295600
Br       6.26448000       9.24840000       0.23083000       0.02249700       0.19186700      -0.67565300
Br       3.03733000       6.53730000      12.28480000       0.94104600      -0.62904600      -0.11537300
Br       0.07250000      12.57670000       9.65457000      -0.04308100      -0.15644300       0.00798500
Br       0.09267000       2.90124000       6.49308000      -0.16580800       0.19548800      -0.16490200
Br       9.34363000      12.33280000       6.30523000      -0.09642100       0.48203500       0.06670400
Br      12.44540000       6.58966000       3.61734000       0.07085500      -0.58717000      -0.58382600
Br       9.57401000       3.04877000       2.90384000      -0.20811400      -0.02714400       0.27181700
64
Lattice="12.12 0.0 0.0 0.0 12.12 0.0 0.0 0.0 12.12" Properties=species:S:1:pos:R:3:forces:R:3 energy=-191.13307973 stress="-0.006237233692132028 -7.130300025409033e-05 -3.919667731054687e-06 -7.130300025409033e-05 -0.003279095407956161 -0.00016863309356311386 -3.919667731054687e-06 -0.00016863309356311386 -0.005028503034813476" free_energy=-191.13307973 pbc="T T T"
Na       5.62323000       6.15951000       6.18339000       0.56175400      -0.41412600       0.06251100
Na       3.34883000       2.87894000       5.81509000      -0.02246800       0.07544000       0.70244100
Na       6.03244000       8.92412000       3.08324000       0.45957900      -0.09902300      -0.16724700
Na       3.12645000       6.12868000       3.29509000      -0.03186500      -0.37542200      -0.18876700
Na       2.92690000       9.29511000       0.02882000       0.07677400      -0.16265200       0.02454300
Na      11.92810000       3.12829000       9.14229000       0.66966400       0.00992300      -0.06169100
Na       9.27645000       0.17243000       8.71156000      -0.40880500      -0.18288400       0.15954300
Na      11.66900000       5.78756000       6.96721000       0.09968800       0.24162100      -0.89899600
Na       5.63872000       9.21694000       8.90908000       0.68908600       0.02066400       0.34496300
Na       2.95019000       6.08432000       9.35892000      -0.47593600      -0.05235000       0.01666600
Na       2.73753000       8.78825000       6.28290000       0.03184600      -0.03315300      -0.24317500
Na      11.74920000       9.13430000       8.91591000       0.19116800       0.12296500       0.17159100
Na       9.17392000       6.17561000       9.05082000      -0.31029700       0.11087600       0.44384800
Na       6.10312000       2.97494000       9.38075000      -0.11286100      -0.10003200      -0.52099200
Na       2.90740000      12.04630000       8.94591000       0.16343800       0.57245600       0.28203000
Na       9.02888000       9.28562000       5.80234000      -0.05953100      -0.50243600       0.13861400
Na       3.38855000       2.96243000       0.19741000      -0.39364900       0.10420000      -0.12694100
Na       0.09435000       0.27640000       6.24140000      -0.27762500      -0.02240300      -0.45055300
Na       0.31865000       3.02280000       2.99927000      -0.14797800      -0.02674300       0.15646500
Na       8.87457000      12.09320000       2.82194000       0.35182500      -0.12330000      -0.06036800
Na      12.09860000       6.22923000       0.17694000       0.14231200      -0.00100100       0.46898600
Na       9.55743000       3.15260000      11.39430000      -0.32221400      -0.14523900       0.60401800
Na       6.12698000      12.10430000      11.95400000      -0.03638200      -0.05546200      -0.14570400
Na      11.88000000       0.33056000       0.06567000       0.58245400      -0.15444700       0.13686800
Na       9.03137000       2.77638000       5.73093000       0.10789000       0.11611600      -0.00064100
Na       5.92689000      11.98870000       5.71426000       0.08235500       0.10063300       0.47432500
Na       0.17947000       8.92812000       3.06597000      -0.10786900       0.23135100       0.01475300
Na       9.39161000       5.71010000       3.32032000      -0.12350100       0.24832500      -0.01862700
Na       5.92254000       6.31493000       0.02095000       0.10656700      -0.14884100      -0.10064000
Na       9.31449000       8.85596000      12.02140000      -0.48554400       0.24716600      -0.10236600
Na       2.98962000      11.94140000       3.32740000       0.16152300       0.07845700      -0.42101200
Na       6.48521000       2.69160000       2.80171000      -0.23786500       0.50174300       0.19013900
Br       9.16236000       3.09143000       8.63021000      -0.03865100       0.09245100       0.29948500
Br       6.13491000       0.10767000       8.78136000      -0.11540100      -0.15234500       0.14804900
Br      11.87980000       8.79658000       6.03249000       0.32015500       0.04481900       0.23207900
Br       8.71017000       6.28120000       6.47163000       0.28095800      -0.18690200      -0.87054500
Br       6.23131000       3.06891000       6.15836000      -0.05394600      -0.21020500      -0.36871600
Br       2.84474000       0.07536000       6.09326000       0.45260800      -0.25176300       0.17449000
Br       9.16904000       9.13881000       2.79386000      -0.15947200      -0.19775400       0.20246200
Br       5.97596000       5.81425000       2.84896000       0.42100600       0.12046300       0.28124600
Br       2.96431000       9.29764000       9.05463000      -0.55336200      -0.41879400       0.12628900
Br       8.94116000       9.39036000       8.88739000       0.06832100      -0.27885100       0.25300500
Br       5.50692000       5.69364000       9.27409000       1.19284000       0.75739100      -0.07129200
Br       3.14620000       3.17275000       9.24028000      -0.53299300      -0.57414400      -0.00955600
Br       6.03366000       8.89698000       6.19754000      -0.12246500       0.44548700      -0.41369600
Br       2.99278000       5.64124000       6.13167000      -0.45662800       0.57933500       0.23184100
Br       3.35598000       8.89919000       3.40493000      -0.63193600       0.42343000      -0.13310700
Br       0.04831000       6.10516000       9.57966000      -0.08901200       0.09762700      -0.40365400
Br       5.96938000      12.05390000       2.88480000       0.03509700      -0.20288100       0.06406100
Br      12.01120000       9.26515000      12.08150000       0.42631200      -0.09329800       0.00303400
Br       9.09359000       5.95855000      11.84650000      -0.10468700       0.09418300       0.27430000
Br       6.14873000       2.84500000      12.11400000       0.31065800       0.05846700       0.15303300
Br       2.83208000       0.02538000       0.01654000       0.14262800       0.00404300      -0.01461800
Br       0.26567000      12.06110000       3.25095000      -0.46382900      -0.08133800      -0.23188000
Br       0.19199000       3.30596000       0.19317000      -0.07842600      -0.26084200      -0.41945600
Br       9.21171000       0.04707000      11.95600000      -0.39134400       0.12785600      -0.07507400
Br       3.11891000       2.95112000       3.19631000       0.22775600      -0.07939400      -0.69516200
Br       6.04228000       9.23478000      12.00400000      -0.02354800      -0.10843300       0.02226500
Br       3.06235000       6.23086000       0.25139000      -0.24479000       0.09890100      -0.06692900
Br      12.07240000       0.30227000       9.00569000       0.10557400      -0.27656400       0.26441000
Br      12.02820000       3.23314000       5.89260000      -0.10720400      -0.23090500       0.27464800
Br       9.21442000      11.98450000       5.78903000      -0.13473000       0.44120800      -0.04524600
Br       0.23140000       6.07952000       3.27766000      -0.39604000      -0.00997800      -0.29490900
Br       9.39700000       2.88880000       2.72061000      -0.20897900       0.04630700       0.22455800
64
Lattice="12.6 0.0 0.0 0.0 12.6 0.0 0.0 0.0 12.6" Properties=species:S:1:pos:R:3:forces:R:3 energy=-188.78846159 stress="0.0005317453699796242 0.00016194843728929289 -0.0005145624953560677 0.00016194843728929289 0.002896397275902629 -0.00012248961659545895 -0.0005145624953560677 -0.00012248961659545895 0.0027643207012898138" free_energy=-188.78846159 pbc="T T T"
Na       5.98693000       5.92713000       6.43852000       0.31620200       0.17806500       0.04597100
Na       3.26077000       2.72652000       5.75079000      -0.15099100       0.00162500       0.10009200
Na       6.40295000       9.04443000       3.19213000       0.03904200       0.13395900       0.10330900
Na       3.65815000       6.26856000       3.19648000      -0.05105700       0.35449800       0.05000500
Na       3.26620000       9.25426000       0.03925000      -0.13479500       0.10218100       0.03905100
Na       0.03272000       3.65860000       9.50510000       0.00851600      -0.04626600      -0.03022200
Na       9.89434000      12.49530000       9.35909000      -0.20783200      -0.03055400       0.02288300
Na       0.13287000       6.26393000       6.16075000       0.17307200       0.07076700       0.21677800
Na       6.88181000       9.66156000       9.41173000      -0.49292900       0.03851100       0.08251600
Na       3.14303000       6.62080000       9.52091000      -0.00287900      -0.15536100      -0.09208300
Na       3.61664000       9.37636000       6.86143000      -0.09965500       0.50591700      -0.37296700
Na       0.59239000       9.75669000       9.74000000      -0.03647100      -0.11273300      -0.14488000
Na       9.12458000       6.01794000       9.86727000       0.60649800       0.01193000      -0.97463500
Na       6.42462000       3.11627000       9.33476000      -0.28916000      -0.10960000       0.08925200
Na       2.82449000       0.56711000       9.06043000       0.29192100      -0.22729600      -0.03843800
Na      10.01390000       8.81232000       6.52585000      -0.21541900       0.22663200       0.10091000
Na       3.03897000       3.13535000      12.40920000      -0.30671200      -0.19691800       0.11125200
Na      12.20690000       0.25869000       6.40309000       0.03921000      -0.57626000      -0.16497000
Na      12.59150000       2.97437000       3.38921000       0.12954900       0.20312500      -0.40845800
Na       9.81493000       0.39592000       3.11503000      -0.20077000      -0.73699200       0.07958900
Na       0.17188000       6.23470000       0.29802000       0.05981000       0.01485600      -0.06680100
Na       8.87750000       2.80326000      12.43740000      -0.03011300       0.23447800      -0.11555100
Na       5.60671000      12.47080000       0.29696000       0.19130800       0.07671900      -0.43332600
Na      12.14250000       0.43731000       0.10587000       0.86153700      -0.01939100       0.09691200
Na       9.33946000       3.19797000       6.11799000       0.13065700      -0.02557400       0.24970600
Na       6.27724000       0.04206000       6.44714000      -0.13708800      -0.38838400       0.04004500
Na      12.58600000       9.69750000       3.53642000       0.13120400       0.02817200      -0.65709200
Na       9.92841000       6.42694000       2.89161000      -0.53628900       0.02421000       0.05231600
Na       6.23310000       6.67142000      12.23950000      -0.03240300      -0.47291000      -0.10373200
Na      10.17730000       9.65404000      12.44840000      -0.75592800      -0.04576400       0.07788000
Na       3.55471000      12.08720000       3.11234000      -0.24204500      -0.08320000       0.22027600
Na       6.67309000       3.15380000       3.40822000      -0.53208100      -0.03621800      -0.24509900
Br       9.25525000       2.73953000       9.20626000       0.21796000       0.45119100       0.35631000
Br       5.42944000       0.03412000       9.88204000       0.59227300       0.21875000      -0.20234200
Br       0.22519000       9.51293000       6.13044000      -0.27769000      -0.18454900       0.73327200
Br       9.02469000       6.15686000       6.40792000       0.55224500      -0.07648800      -0.11517200
Br       6.44544000       2.88917000       6.19428000      -0.55092500       0.16329800       0.21200800
Br       3.02342000      12.16930000       6.02962000       0.25941600       0.57691000       0.11001600
Br       9.72061000       9.57085000       2.96448000      -0.13240200      -0.22778300      -0.02572900
Br       6.51662000       6.06457000       3.59899000      -0.04674000       0.21297400      -0.41499500
Br       3.73679000       9.50756000       9.58829000      -0.65145900      -0.23575900       0.50126600
Br       9.62955000       9.47498000       9.58232000       0.26525400       0.03311100      -0.00646600
Br       6.61056000       6.36315000       9.24467000      -0.74330700      -0.02103900       0.30928200
Br       2.95445000       3.34290000       9.12252000      -0.02710300       0.14976600      -0.09466700
Br       6.41215000       9.56183000       6.63335000       0.25063000       0.11691300      -0.44096200
Br       3.33132000       6.76530000       6.65207000      -0.32158200      -0.81774800      -0.32316000
Br       3.21845000       9.07159000       3.26234000       0.15552200       0.18129700      -0.28886800
Br      12.55850000       6.66956000       9.18075000       0.03793700      -0.17582100       0.11002900
Br       6.38890000       0.08843000       3.01927000       0.03939100       0.02736000       0.12702400
Br       0.16540000       9.77010000       0.09236000       0.63978700      -0.24710800      -0.04293100
Br       9.48877000       5.91260000      12.39000000       0.04938200       0.11227600       1.04878000
Br       5.73494000       3.33474000      12.18990000       0.94671800      -0.07749700       0.21834200
Br       2.83702000       0.01940000       0.45374000      -0.13617600       0.06552200      -0.14039300
Br       0.09232000       0.06541000       3.31897000      -0.29398000       0.06662200      -0.13514300
Br      12.56420000       3.39371000       0.00733000      -0.06444100      -0.32599700      -0.17189100
Br       9.56439000      12.58400000      12.29860000      -0.41927700       0.02330300       0.20153700
Br       2.85352000       3.76552000       2.97808000       0.19039900      -0.82786500       0.29808800
Br       6.12878000       9.40224000       0.09603000       0.20300400       0.07853400       0.22063100
Br       3.14917000       5.97377000      12.35510000      -0.09979400       0.76036500       0.09242700
Br       0.12397000       0.11547000       9.21622000      -0.13771200      -0.13423400       0.28662400
Br      12.57340000       2.89738000       6.12609000       0.00450000       0.65103300       0.36947200
Br       9.10601000       0.07618000       6.62082000       0.47905300      -0.09625500      -0.39119500
Br      12.57100000       6.01907000       3.31237000       0.00264500       0.25499200      -0.09927600
Br       9.33834000       3.02760000       3.15109000       0.49256100       0.36170200      -0.23240900
64
Lattice="12.16 0.0 0.0 0.0 12.16 0.0 0.0 0.0 12.16" Properties=species:S:1:pos:R:3:forces:R:3 energy=-190.42474603 stress="-0.004514389928114473 0.00023000585279792394 -0.00015324153205868574 0.00023000585279792394 -0.005003093851162006 -0.0004988276508497159 -0.00015324153205868574 -0.0004988276508497159 -0.007059739764740923" free_energy=-190.42474603 pbc="T T T"
Na       5.93454000       6.33682000       6.04445000      -0.05419800      -0.28595700       0.15641900
Na       2.48754000       2.94985000       6.36010000       0.41018000       0.01493100      -0.43340600
Na       6.31559000       8.92394000       2.79483000      -0.53085200       0.40567500       0.05536200
Na       2.78014000       5.77123000       2.73685000       0.33413600       0.11871100       0.64702600
Na       3.01230000       9.04566000      11.92610000       0.25709800       0.13229000       0.53248400
Na      12.08140000       3.15302000       9.47114000       0.06613100      -0.10611500      -0.35697700
Na       9.61986000       0.29861000       9.01461000      -0.15935100      -0.17182400      -0.02356000
Na      11.81140000       6.59293000       6.36132000       0.02424500      -0.71757300      -0.20827500
Na       5.92301000       9.45386000       8.98917000       0.04944900      -0.20149900       0.43273300
Na       3.14654000       5.94532000       9.36553000       0.09727900       0.12992600      -0.25576800
Na       3.33877000       8.87392000       6.09783000      -0.30192600       0.24217800      -0.14523800
Na      12.10840000       8.71081000       9.26900000      -0.10292200       0.70079300      -1.13347700
Na       8.91659000       6.17262000       9.29589000       0.06949800      -0.01300500      -0.18502300
Na       5.90670000       2.99245000       9.34088000       0.31931500       0.03367700      -0.13087700
Na       3.16451000      12.13570000       9.45226000       0.76574100      -0.10787500       0.00870200
Na       9.10397000       9.36540000       6.09332000       0.10283800      -0.06954700      -0.12686000
Na       3.10665000       2.82449000       0.10577000      -0.35234400      -0.01981300       0.03213500
Na      12.15496000      11.87000000       6.13768000      -0.03053400       0.14355100      -0.05587000
Na       0.18425000       2.64935000       3.11809000      -0.22568200       0.37060500      -0.34540800
Na       8.97122000       0.22848000       2.91288000      -0.02788900      -0.17385800       0.12329400
Na       0.29693000       6.05999000      12.00130000      -0.47978200      -0.20231200       0.41539200
Na       8.66851000       2.84018000       0.21245000       0.38715800       0.44618600      -0.13258700
Na       6.16719000       0.10650000      12.06011000      -0.14608700      -0.32413400       0.27000300
Na      12.15484000      11.92552000       0.14400000       0.15114000       0.44007300      -0.25144600
Na       9.14284000       3.17329000       6.47155000       0.01013800      -0.04238500      -0.82325000
Na       5.91600000       0.11483000       6.16322000       0.04348800      -0.01182700      -0.14122600
Na      11.87997000       9.02034000       2.38791000       0.33920300       0.13048200       0.54290500
Na       8.82011000       6.25530000       2.98858000       0.40527600      -0.12097900      -0.04678300
Na       6.29075000       6.19199000      12.12698000      -0.22406300      -0.01800300      -0.15937200
Na       9.19092000       9.41322000      11.79410000      -0.21729100      -0.10155800       0.02790900
Na       2.76646000      11.98110000       3.27984000       0.38599800      -0.03900500       0.20264600
Na       6.45252000       3.32435000       3.63562000      -0.23535800      -0.37825400      -0.42535800
Br       9.09776000       3.11459000       9.06532000       0.18028200       0.03882000       0.73264800
Br       6.41534000       0.10436000       9.15903000      -0.47244300       0.11921200      -0.12240100
Br       0.21293000       9.05414000       5.79588000      -0.34349300       0.48685000       0.17050900
Br       8.74028000       6.44129000       6.30320000       0.70028900      -0.23480100      -0.33131300
Br       6.26005000       3.30857000       6.32195000      -0.17526900      -0.25368000       0.00241100
Br       2.87248000      11.85500000       6.35909000       0.56531000       0.23300000      -0.29661100
Br       9.07605000       9.30645000       2.50718000       0.09072500      -0.24695100       0.32855900
Br       5.95499000       5.99571000       2.83619000       0.06153100       0.22901200       0.20766300
Br       2.79581000       8.93725000       9.18037000       0.48630100       0.16417600      -0.16595600
Br       8.97439000       9.41912000       8.94120000       0.53058300      -0.19912600       0.29169700
Br       6.12319000       5.86542000       9.21897000      -0.18887300       0.35258800       0.21253400
Br       3.15769000       3.12481000       8.94821000      -0.19336600      -0.16981700       0.71214200
Br       6.23336000       9.16194000       6.32659000      -0.30679300       0.13425000      -0.56909400
Br       3.15408000       6.08484000       6.43714000      -0.28615400      -0.19486900      -0.28958800
Br       3.09426000       9.12517000       3.10366000       0.10581400      -0.34480700      -0.18764500
Br       0.00078000       6.09948000       9.20941000      -0.15424800      -0.68358200      -0.24408000
Br       5.99212000      11.96500000       3.02025000       0.23667700       0.21009100       0.23722100
Br       0.07345000       9.09894000      11.75920000      -0.21952300       0.12913600       1.00202100
Br       9.09476000       5.86678000      12.09262000       0.14410400       0.20809300       0.21834300
Br       5.86942000       2.79621000       0.15814000       0.18690900       0.50904500      -0.05243800
Br       3.03467000      12.06520000       0.50249000      -0.04313400      -0.08786500      -0.89080800
Br      12.11200000      12.06000000       2.96469000      -0.34201300      -0.38366800       0.09980300
Br      11.98430000       2.82467000      12.15050000       0.25274600       0.19628000       0.37086600
Br       9.09377000       0.15927000      11.99250000       0.29591700      -0.29928400       0.05341800
Br       2.99333000       2.84371000       3.05418000       0.12472600       0.20825700       0.26775900
Br       6.16401000       9.41912000      12.00070000      -0.15854600      -0.53371500      -0.11688900
Br       3.04204000       5.94510000       0.08531000       0.30339700       0.06304100      -0.50043600
Br       0.68619000       0.34744000       9.05308000      -1.67651900      -0.13216900       0.18105400
Br      12.01600000       2.66565000       5.85054000      -0.31767100       0.28736500       0.40779100
Br       8.98681000       0.02820000       5.95682000       0.20732500       0.11709400       0.09094600
Br       0.13802000       6.31550000       2.91086000      -0.56368700      -0.27895200       0.00381700
Br       9.26199000       3.12052000       3.04220000      -0.16093700       0.15342400       0.10980900
64
Lattice="12.6 0.0 0.0 0.0 12.6 0.0 0.0 0.0 12.6" Properties=species:S:1:pos:R:3:forces:R:3 energy=-189.27109896 stress="0.003316101315563523 0.0006900175583937718 0.0004787861650465047 0.0006900175583937718 0.003246227620899261 -5.047508430101791e-05 0.0004787861650465047 -5.047508430101791e-05 0.0032105886037904667" free_energy=-189.27109896 pbc="T T T"
Na       6.09946000       6.47114000       5.91069000       0.26610300      -0.15466900       0.17448200
Na       3.13267000       3.02934000       6.30151000      -0.05005200       0.12741500      -0.12419700
Na       6.63793000       8.88528000       3.09650000      -0.10819100       0.05623600       0.20460500
Na       3.13734000       6.16801000       2.91063000      -0.07677500      -0.03996100       0.20479600
Na       3.25584000       9.47262000       0.23778000       0.17603600      -0.09645700      -0.11116400
Na      12.21360000       3.49508000       9.15328000       0.14072900      -0.00109000       0.03962100
Na       9.51587000      12.50060000       9.81305000      -0.07924800       0.09502800       0.03669500
Na       0.25449000       6.33683000       5.71029000      -0.05964900      -0.07468500       0.19512900
Na       6.30486000       9.05189000       8.81323000       0.13483000       0.85044000       0.04587600
Na       3.22126000       5.86428000       9.29148000       0.13779100       0.27067100       0.05263600
Na       2.98154000       9.41376000       6.14733000       0.28131400       0.08423500       0.13428100
Na       0.35265000       9.37900000       9.68659000       0.03878300      -0.08168400      -0.11335200